variables="time (s)","Alt (m)","Vel (m/s)"           ,"Patm (N/m2)","Rho atm (kg/m3)","gamma (deg)","                  decel (g)","Q conv (W/cm2)","Qrad (W/cm2)","Qtotal (
zone T="BC=****** V= 5000.00 Gamma=50.00 LoD=2.30 Bnk= 0.00 rnose=3.000"
      0.00    60000.0    5000.00    1.37330E+02    1.71357E-03    50.000        0.00           0.00           0.00           0.00         0.00         0.00
      1.00    61315.6    4990.77    1.22280E+02    1.51031E-03    49.998       -0.90          48.57           0.00          49.06      4819.90     18809.28
      2.00    62637.3    4982.38    1.08294E+02    1.32337E-03    49.996       -0.82          45.24           0.00          95.94      9628.78     16425.69
      3.00    63963.7    4974.71    9.59888E+01    1.16064E-03    49.995       -0.75          42.17           0.00         139.63     14427.90     14361.63
      4.00    65293.4    4967.67    8.51643E+01    1.01900E-03    49.994       -0.69          39.35           0.00         180.37     19218.35     12573.26
      5.00    66625.2    4961.18    7.56400E+01    8.95661E-04    49.994       -0.64          36.74           0.00         218.39     24001.09     11022.59
      6.00    67958.1    4955.17    6.72565E+01    7.88217E-04    49.993       -0.59          34.35           0.00         253.92     28776.93      9676.81
      7.00    69291.1    4949.57    5.98726E+01    6.94553E-04    49.993       -0.55          32.13           0.00         287.15     33546.60      8507.64
      8.00    70623.6    4944.33    5.33645E+01    6.12831E-04    49.993       -0.52          30.09           0.00         318.24     38310.73      7490.75
      9.00    71954.9    4939.40    4.76235E+01    5.41463E-04    49.993       -0.49          28.20           0.00         347.37     43069.86      6605.23
     10.00    73284.3    4934.76    4.25543E+01    4.79071E-04    49.993       -0.46          26.45           0.00         374.68     47824.47      5833.13
     11.00    74611.5    4930.36    3.80739E+01    4.24463E-04    49.993       -0.44          24.83           0.00         400.31     52574.98      5159.02
     12.00    75935.9    4926.17    3.41096E+01    3.76614E-04    49.994       -0.42          23.33           0.00         424.37     57321.76      4569.67
     13.00    77257.2    4922.17    3.05979E+01    3.34633E-04    49.994       -0.40          21.93           0.00         447.00     62065.12      4053.70
     14.00    78575.0    4918.33    2.74837E+01    2.97755E-04    49.995       -0.38          20.64           0.00         468.28     66805.34      3601.34
     15.00    79889.1    4914.65    2.47186E+01    2.65316E-04    49.995       -0.37          19.44           0.00         488.31     71542.67      3204.19
     16.00    81199.1    4911.09    2.22606E+01    2.36745E-04    49.996       -0.36          18.33           0.00         507.19     76277.33      2855.01
     17.00    82505.0    4907.65    2.00728E+01    2.11547E-04    49.997       -0.35          17.29           0.00         524.99     81009.51      2547.56
     18.00    83806.3    4904.32    1.81232E+01    1.89294E-04    49.997       -0.34          16.32           0.00         541.78     85739.38      2276.48
     19.00    85103.1    4901.07    1.63836E+01    1.69615E-04    49.998       -0.33          15.42           0.00         557.64     90467.08      2037.12
     20.00    86395.1    4897.91    1.48296E+01    1.52189E-04    49.999       -0.32          14.57           0.00         572.63     95192.76      1825.47
     21.00    87682.2    4894.83    1.34396E+01    1.36737E-04    50.000       -0.31          13.79           0.00         586.81     99916.52      1638.07
     22.00    88964.3    4891.81    1.21947E+01    1.23018E-04    50.001       -0.30          13.05           0.00         600.23    104638.47      1471.90
     23.00    90241.2    4888.86    1.10786E+01    1.10820E-04    50.002       -0.30          12.37           0.00         612.94    109358.71      1324.35
     24.00    91512.9    4885.96    1.00766E+01    9.99609E-05    50.003       -0.29          11.73           0.00         624.98    114077.32      1193.16
     25.00    92779.3    4883.11    9.17593E+00    9.02812E-05    50.004       -0.29          11.12           0.00         636.40    118794.37      1076.37
     26.00    94040.3    4880.31    8.36546E+00    8.16415E-05    50.005       -0.28          10.56           0.00         647.24    123509.93       972.25
     27.00    95295.9    4877.56    7.63528E+00    7.39201E-05    50.006       -0.28          10.03           0.00         657.53    128224.05       879.30
     28.00    96545.9    4874.84    6.97665E+00    6.70108E-05    50.007       -0.28           9.54           0.00         667.31    132936.81       796.22
     29.00    97790.4    4872.16    6.38190E+00    6.08204E-05    50.008       -0.27           9.07           0.00         676.61    137648.23       721.87
     30.00    99029.3    4869.51    5.84420E+00    5.52673E-05    50.009       -0.27           8.63           0.00         685.46    142358.37       655.25
     31.00   100262.5    4866.89    5.35755E+00    5.02797E-05    50.010       -0.27           8.22           0.00         693.88    147067.26       595.48
     32.00   101490.0    4864.31    4.91660E+00    4.57949E-05    50.011       -0.26           7.83           0.00         701.91    151774.95       541.79
     33.00   102711.9    4861.75    4.51664E+00    4.17572E-05    50.012       -0.26           7.47           0.00         709.56    156481.46       493.50
     34.00   103927.9    4859.21    4.15346E+00    3.81179E-05    50.013       -0.26           7.12           0.00         716.85    161186.83       450.02
     35.00   105138.2    4856.71    3.82333E+00    3.48339E-05    50.014       -0.25           6.80           0.00         723.81    165891.08       410.82
     36.00   106342.6    4854.22    3.52292E+00    3.18671E-05    50.015       -0.25           6.49           0.00         730.45    170594.24       375.45
     37.00   107541.3    4851.76    3.24929E+00    2.91840E-05    50.016       -0.25           6.20           0.00         736.80    175296.33       343.49
     38.00   108734.0    4849.32    2.99979E+00    2.67548E-05    50.018       -0.25           5.93           0.00         742.86    179997.37       314.58
     39.00   109921.0    4846.90    2.77207E+00    2.45529E-05    50.019       -0.25           5.67           0.00         748.66    184697.39       288.40
     40.00   111102.0    4844.50    2.56402E+00    2.25551E-05    50.020       -0.24           5.43           0.00         754.21    189396.39       264.67
     41.00   112277.1    4842.11    2.37376E+00    2.07405E-05    50.021       -0.24           5.20           0.00         759.53    194094.40       243.14
     42.00   113446.4    4839.75    2.19960E+00    1.90906E-05    50.022       -0.24           4.98           0.00         764.62    198791.44       223.58
     43.00   114609.7    4837.40    2.04003E+00    1.75890E-05    50.023       -0.24           4.77           0.00         769.49    203487.51       205.80
     44.00   115767.1    4835.07    1.89369E+00    1.62209E-05    50.024       -0.24           4.58           0.00         774.17    208182.64       189.61
     45.00   116918.5    4832.76    1.75936E+00    1.49732E-05    50.026       -0.24           4.39           0.00         778.65    212876.83       174.85
     46.00   118064.0    4830.46    1.63595E+00    1.38343E-05    50.027       -0.23           4.22           0.00         782.95    217570.10       161.40
     47.00   119203.5    4828.18    1.52247E+00    1.27936E-05    50.028       -0.23           4.05           0.00         787.08    222262.46       149.12
     48.00   120337.1    4825.91    1.41803E+00    1.18419E-05    50.029       -0.23           3.89           0.00         791.05    226953.91       137.90
     49.00   121464.7    4823.66    1.32182E+00    1.09706E-05    50.030       -0.23           3.74           0.00         794.86    231644.48       127.63
     50.00   122586.4    4821.42    1.23313E+00    1.01722E-05    50.031       -0.23           3.59           0.00         798.53    236334.17       118.23
     51.00   123702.0    4819.20    1.15129E+00    9.44005E-06    50.032       -0.23           3.46           0.00         802.05    241022.99       109.62
     52.00   124811.7    4816.99    1.07572E+00    8.76798E-06    50.034       -0.22           3.33           0.00         805.45    245710.94       101.72
     53.00   125915.4    4814.80    1.00588E+00    8.15055E-06    50.035       -0.22           3.20           0.00         808.71    250398.05        94.47
     54.00   127013.1    4812.62    9.41287E-01    7.58281E-06    50.036       -0.22           3.09           0.00         811.86    255084.31        87.81
     55.00   128104.8    4810.45    8.81495E-01    7.06033E-06    50.037       -0.22           2.97           0.00         814.89    259769.73        81.69
     56.00   129190.6    4808.30    8.26106E-01    6.57909E-06    50.038       -0.22           2.87           0.00         817.81    264454.33        76.05
     57.00   130270.3    4806.16    7.74758E-01    6.13548E-06    50.040       -0.22           2.76           0.00         820.62    269138.10        70.86
     58.00   131344.0    4804.03    7.27119E-01    5.72622E-06    50.041       -0.22           2.67           0.00         823.34    273821.06        66.08
     59.00   132411.7    4801.92    6.82890E-01    5.34835E-06    50.042       -0.21           2.57           0.00         825.96    278503.21        61.66
     60.00   133473.4    4799.82    6.41796E-01    4.99919E-06    50.043       -0.21           2.49           0.00         828.49    283184.57        57.59
     61.00   134529.2    4797.73    6.03588E-01    4.67630E-06    50.044       -0.21           2.40           0.00         830.93    287865.12        53.82
     62.00   135578.9    4795.65    5.68038E-01    4.37748E-06    50.045       -0.21           2.32           0.00         833.29    292544.90        50.34
     63.00   136622.6    4793.59    5.34939E-01    4.10073E-06    50.047       -0.21           2.24           0.00         835.57    297223.89        47.11
     64.00   137660.3    4791.54    5.04099E-01    3.84422E-06    50.048       -0.21           2.17           0.00         837.78    301902.10        44.13
     65.00   138692.0    4789.50    4.75346E-01    3.60631E-06    50.049       -0.21           2.10           0.00         839.91    306579.55        41.36
     66.00   139717.7    4787.48    4.48520E-01    3.38547E-06    50.050       -0.21           2.03           0.00         841.97    311256.24        38.80
     67.00   140737.3    4785.47    4.23475E-01    3.18035E-06    50.051       -0.20           1.97           0.00         843.97    315932.17        36.42
     68.00   141751.0    4783.47    4.00079E-01    2.98968E-06    50.053       -0.20           1.90           0.00         845.91    320607.34        34.20
     69.00   142758.7    4781.48    3.78208E-01    2.81233E-06    50.054       -0.20           1.84           0.00         847.78    325281.77        32.15
     70.00   143760.3    4779.50    3.57751E-01    2.64725E-06    50.055       -0.20           1.79           0.00         849.59    329955.46        30.24
     71.00   144756.0    4777.54    3.38604E-01    2.49350E-06    50.056       -0.20           1.73           0.00         851.35    334628.42        28.46
     72.00   145745.6    4775.59    3.20672E-01    2.35019E-06    50.057       -0.20           1.68           0.00         853.06    339300.65        26.80
     73.00   146729.2    4773.65    3.03868E-01    2.21653E-06    50.059       -0.20           1.63           0.00         854.71    343972.15        25.25
     74.00   147706.8    4771.72    2.88111E-01    2.09179E-06    50.060       -0.20           1.58           0.00         856.31    348642.94        23.81
     75.00   148678.5    4769.81    2.73328E-01    1.97530E-06    50.061       -0.19           1.53           0.00         857.87    353313.01        22.47
     76.00   149644.1    4767.90    2.59450E-01    1.86645E-06    50.062       -0.19           1.49           0.00         859.38    357982.37        21.21
     77.00   150603.7    4766.01    2.46415E-01    1.76467E-06    50.063       -0.19           1.45           0.00         860.85    362651.03        20.04
     78.00   151557.2    4764.13    2.34164E-01    1.66944E-06    50.065       -0.19           1.40           0.00         862.27    367318.99        18.95
     79.00   152504.8    4762.27    2.22643E-01    1.58029E-06    50.066       -0.19           1.37           0.00         863.66    371986.26        17.92
     80.00   153446.4    4760.41    2.11804E-01    1.49678E-06    50.067       -0.19           1.33           0.00         865.01    376652.84        16.96
     81.00   154382.0    4758.57    2.01600E-01    1.41851E-06    50.068       -0.19           1.29           0.00         866.31    381318.73        16.06
     82.00   155311.6    4756.73    1.91989E-01    1.34510E-06    50.069       -0.19           1.26           0.00         867.59    385983.95        15.22
     83.00   156235.1    4754.92    1.82931E-01    1.27621E-06    50.071       -0.18           1.22           0.00         868.82    390648.49        14.43
     84.00   157152.7    4753.11    1.74391E-01    1.21154E-06    50.072       -0.18           1.19           0.00         870.03    395312.37        13.69
     85.00   158064.3    4751.31    1.66335E-01    1.15078E-06    50.073       -0.18           1.16           0.00         871.20    399975.58        12.99
     86.00   158969.8    4749.53    1.58730E-01    1.09366E-06    50.074       -0.18           1.13           0.00         872.34    404638.13        12.34
     87.00   159869.4    4747.76    1.51550E-01    1.03995E-06    50.076       -0.18           1.10           0.00         873.46    409300.03        11.72
     88.00   160763.0    4746.00    1.44765E-01    9.89408E-07    50.077       -0.18           1.07           0.00         874.54    413961.27        11.14
     89.00   161650.5    4744.25    1.38352E-01    9.41822E-07    50.078       -0.18           1.04           0.00         875.59    418621.87        10.60
     90.00   162532.1    4742.51    1.32287E-01    8.96997E-07    50.079       -0.18           1.02           0.00         876.62    423281.83        10.09
     91.00   163407.7    4740.79    1.26548E-01    8.54751E-07    50.080       -0.18           0.99           0.00         877.63    427941.16         9.61
     92.00   164277.2    4739.07    1.21116E-01    8.14914E-07    50.082       -0.17           0.97           0.00         878.60    432599.85         9.15
     93.00   165140.8    4737.37    1.15971E-01    7.77330E-07    50.083       -0.17           0.94           0.00         879.56    437257.92         8.72
     94.00   165998.4    4735.68    1.11097E-01    7.41854E-07    50.084       -0.17           0.92           0.00         880.49    441915.36         8.32
     95.00   166850.0    4734.00    1.06476E-01    7.08352E-07    50.085       -0.17           0.90           0.00         881.40    446572.19         7.94
     96.00   167695.6    4732.34    1.02094E-01    6.76697E-07    50.086       -0.17           0.88           0.00         882.28    451228.40         7.58
     97.00   168535.2    4730.68    9.79363E-02    6.46774E-07    50.088       -0.17           0.86           0.00         883.15    455884.00         7.24
     98.00   169368.8    4729.04    9.39899E-02    6.18474E-07    50.089       -0.17           0.84           0.00         884.00    460539.00         6.92
     99.00   170196.4    4727.41    9.02424E-02    5.91697E-07    50.090       -0.17           0.82           0.00         884.82    465193.40         6.61
    100.00   171018.0    4725.79    8.66823E-02    5.66348E-07    50.091       -0.16           0.80           0.00         885.63    469847.21         6.32
    101.00   171833.7    4724.18    8.32987E-02    5.42341E-07    50.093       -0.16           0.78           0.00         886.42    474500.42         6.05
    102.00   172643.3    4722.59    8.00815E-02    5.19595E-07    50.094       -0.16           0.76           0.00         887.19    479153.05         5.79
    103.00   173447.0    4721.00    7.70214E-02    4.98033E-07    50.095       -0.16           0.75           0.00         887.95    483805.09         5.55
    104.00   174244.7    4719.43    7.41094E-02    4.77585E-07    50.096       -0.16           0.73           0.00         888.69    488456.56         5.32
    105.00   175036.4    4717.87    7.13373E-02    4.58184E-07    50.098       -0.16           0.71           0.00         889.41    493107.45         5.10
    106.00   175822.1    4716.32    6.86973E-02    4.39769E-07    50.099       -0.16           0.70           0.00         890.12    497757.78         4.89
    107.00   176601.8    4714.78    6.61821E-02    4.22283E-07    50.100       -0.16           0.68           0.00         890.81    502407.54         4.69
    108.00   177375.6    4713.26    6.37850E-02    4.05671E-07    50.101       -0.15           0.67           0.00         891.49    507056.74         4.51
    109.00   178143.4    4711.75    6.14994E-02    3.89884E-07    50.102       -0.15           0.66           0.00         892.15    511705.39         4.33
    110.00   178905.2    4710.24    5.93195E-02    3.74874E-07    50.104       -0.15           0.64           0.00         892.80    516353.48         4.16
    111.00   179661.0    4708.75    5.72394E-02    3.60597E-07    50.105       -0.15           0.63           0.00         893.44    521001.03         4.00
    112.00   180410.8    4707.27    5.52540E-02    3.47012E-07    50.106       -0.15           0.62           0.00         894.06    525648.04         3.84
    113.00   181154.6    4705.81    5.33582E-02    3.34080E-07    50.107       -0.15           0.61           0.00         894.67    530294.50         3.70
    114.00   181892.5    4704.35    5.15473E-02    3.21765E-07    50.109       -0.15           0.59           0.00         895.27    534940.44         3.56
    115.00   182624.4    4702.91    4.98170E-02    3.10033E-07    50.110       -0.15           0.58           0.00         895.86    539585.84         3.43
    116.00   183350.3    4701.48    4.81630E-02    2.98852E-07    50.111       -0.15           0.57           0.00         896.44    544230.72         3.30
    117.00   184070.3    4700.06    4.65814E-02    2.88192E-07    50.112       -0.14           0.56           0.00         897.00    548875.07         3.18
    118.00   184784.3    4698.65    4.50686E-02    2.78025E-07    50.114       -0.14           0.55           0.00         897.56    553518.91         3.07
    119.00   185492.3    4697.25    4.36211E-02    2.68325E-07    50.115       -0.14           0.54           0.00         898.10    558162.24         2.96
    120.00   186194.3    4695.87    4.22356E-02    2.59067E-07    50.116       -0.14           0.53           0.00         898.64    562805.06         2.86
    121.00   186890.3    4694.49    4.09090E-02    2.50228E-07    50.117       -0.14           0.52           0.00         899.16    567447.37         2.76
    122.00   187580.4    4693.13    3.96384E-02    2.41785E-07    50.119       -0.14           0.51           0.00         899.68    572089.19         2.66
    123.00   188264.6    4691.78    3.84211E-02    2.33719E-07    50.120       -0.14           0.50           0.00         900.18    576730.51         2.57
    124.00   188942.7    4690.44    3.72544E-02    2.26009E-07    50.121       -0.14           0.49           0.00         900.68    581371.34         2.49
    125.00   189614.9    4689.12    3.61359E-02    2.18637E-07    50.122       -0.13           0.48           0.00         901.17    586011.68         2.40
    126.00   190281.1    4687.80    3.50633E-02    2.11587E-07    50.124       -0.13           0.48           0.00         901.65    590651.53         2.32
    127.00   190941.4    4686.50    3.40343E-02    2.04841E-07    50.125       -0.13           0.47           0.00         902.12    595290.91         2.25
    128.00   191595.6    4685.21    3.30470E-02    1.98385E-07    50.126       -0.13           0.46           0.00         902.59    599929.82         2.18
    129.00   192244.0    4683.93    3.20993E-02    1.92205E-07    50.127       -0.13           0.45           0.00         903.05    604568.25         2.11
    130.00   192886.3    4682.66    3.11895E-02    1.86286E-07    50.129       -0.13           0.45           0.00         903.49    609206.22         2.04
    131.00   193522.7    4681.40    3.03156E-02    1.80615E-07    50.130       -0.13           0.44           0.00         903.94    613843.72         1.98
    132.00   194153.2    4680.16    2.94762E-02    1.75182E-07    50.131       -0.13           0.43           0.00         904.37    618480.77         1.92
    133.00   194777.6    4678.93    2.86695E-02    1.69973E-07    50.132       -0.13           0.42           0.00         904.80    623117.36         1.86
    134.00   195396.1    4677.71    2.78942E-02    1.64979E-07    50.134       -0.12           0.42           0.00         905.22    627753.51         1.80
    135.00   196008.7    4676.50    2.71488E-02    1.60188E-07    50.135       -0.12           0.41           0.00         905.64    632389.20         1.75
    136.00   196615.3    4675.30    2.64319E-02    1.55592E-07    50.136       -0.12           0.41           0.00         906.04    637024.46         1.70
    137.00   197215.9    4674.11    2.57423E-02    1.51182E-07    50.137       -0.12           0.40           0.00         906.45    641659.28         1.65
    138.00   197810.6    4672.94    2.50788E-02    1.46947E-07    50.139       -0.12           0.39           0.00         906.84    646293.66         1.60
    139.00   198399.3    4671.78    2.44402E-02    1.42882E-07    50.140       -0.12           0.39           0.00         907.23    650927.62         1.56
    140.00   198982.1    4670.62    2.38254E-02    1.38976E-07    50.141       -0.12           0.38           0.00         907.62    655561.15         1.52
    141.00   199558.9    4669.48    2.32335E-02    1.35224E-07    50.142       -0.12           0.38           0.00         908.00    660194.26         1.47
    142.00   200129.8    4668.36    2.26634E-02    1.31619E-07    50.144       -0.11           0.37           0.00         908.37    664826.95         1.43
    143.00   200694.7    4667.24    2.21141E-02    1.28153E-07    50.145       -0.11           0.37           0.00         908.74    669459.23         1.40
    144.00   201253.6    4666.14    2.15849E-02    1.24820E-07    50.146       -0.11           0.36           0.00         909.10    674091.10         1.36
    145.00   201806.6    4665.04    2.10749E-02    1.21615E-07    50.147       -0.11           0.36           0.00         909.46    678722.56         1.32
    146.00   202353.7    4663.96    2.05832E-02    1.18532E-07    50.149       -0.11           0.35           0.00         909.81    683353.62         1.29
    147.00   202894.8    4662.89    2.01091E-02    1.15565E-07    50.150       -0.11           0.35           0.00         910.16    687984.29         1.26
    148.00   203429.9    4661.84    1.96518E-02    1.12709E-07    50.151       -0.11           0.34           0.00         910.51    692614.56         1.22
    149.00   203959.1    4660.79    1.92108E-02    1.09960E-07    50.152       -0.11           0.34           0.00         910.85    697244.44         1.19
    150.00   204482.3    4659.76    1.87853E-02    1.07313E-07    50.154       -0.10           0.33           0.00         911.18    701873.94         1.17
    151.00   204999.6    4658.73    1.83747E-02    1.04764E-07    50.155       -0.10           0.33           0.00         911.51    706503.06         1.14
    152.00   205511.0    4657.72    1.79783E-02    1.02308E-07    50.156       -0.10           0.32           0.00         911.84    711131.80         1.11
    153.00   206016.4    4656.72    1.75957E-02    9.99422E-08    50.157       -0.10           0.32           0.00         912.16    715760.16         1.08
    154.00   206515.9    4655.74    1.72263E-02    9.76618E-08    50.159       -0.10           0.32           0.00         912.48    720388.16         1.06
    155.00   207009.4    4654.76    1.68696E-02    9.54637E-08    50.160       -0.10           0.31           0.00         912.80    725015.78         1.03
    156.00   207496.9    4653.80    1.65250E-02    9.33444E-08    50.161       -0.10           0.31           0.00         913.11    729643.05         1.01
    157.00   207978.6    4652.84    1.61921E-02    9.13008E-08    50.162       -0.10           0.31           0.00         913.42    734269.96         0.99
    158.00   208454.2    4651.90    1.58705E-02    8.93298E-08    50.164       -0.10           0.30           0.00         913.72    738896.52         0.97
    159.00   208924.0    4650.98    1.55597E-02    8.74285E-08    50.165       -0.09           0.30           0.00         914.02    743522.72         0.95
    160.00   209387.8    4650.06    1.52593E-02    8.55940E-08    50.166       -0.09           0.30           0.00         914.32    748148.58         0.93
    161.00   209845.6    4649.15    1.49690E-02    8.38238E-08    50.167       -0.09           0.29           0.00         914.61    752774.09         0.91
    162.00   210297.5    4648.26    1.46882E-02    8.21152E-08    50.169       -0.09           0.29           0.00         914.91    757399.26         0.89
    163.00   210743.5    4647.38    1.44168E-02    8.04660E-08    50.170       -0.09           0.29           0.00         915.19    762024.10         0.87
    164.00   211183.6    4646.51    1.41544E-02    7.88737E-08    50.171       -0.09           0.28           0.00         915.48    766648.61         0.85
    165.00   211617.6    4645.65    1.39005E-02    7.73362E-08    50.173       -0.09           0.28           0.00         915.76    771272.79         0.83
    166.00   212045.8    4644.80    1.36550E-02    7.58515E-08    50.174       -0.09           0.28           0.00         916.04    775896.64         0.82
    167.00   212468.0    4643.97    1.34175E-02    7.44174E-08    50.175       -0.08           0.27           0.00         916.31    780520.17         0.80
    168.00   212884.3    4643.14    1.31877E-02    7.30321E-08    50.176       -0.08           0.27           0.00         916.59    785143.39         0.79
    169.00   213294.6    4642.33    1.29654E-02    7.16938E-08    50.178       -0.08           0.27           0.00         916.86    789766.29         0.77
    170.00   213699.0    4641.53    1.27503E-02    7.04008E-08    50.179       -0.08           0.27           0.00         917.13    794388.88         0.76
    171.00   214097.5    4640.74    1.25421E-02    6.91513E-08    50.180       -0.08           0.26           0.00         917.39    799011.16         0.74
    172.00   214490.0    4639.96    1.23406E-02    6.79439E-08    50.181       -0.08           0.26           0.00         917.66    803633.14         0.73
    173.00   214876.6    4639.20    1.21457E-02    6.67769E-08    50.183       -0.08           0.26           0.00         917.92    808254.82         0.72
    174.00   215257.3    4638.45    1.19569E-02    6.56490E-08    50.184       -0.08           0.26           0.00         918.17    812876.20         0.71
    175.00   215632.0    4637.70    1.17743E-02    6.45587E-08    50.185       -0.08           0.25           0.00         918.43    817497.29         0.69
    176.00   216000.8    4636.97    1.15975E-02    6.35048E-08    50.187       -0.07           0.25           0.00         918.68    822118.09         0.68
    177.00   216363.7    4636.26    1.14263E-02    6.24859E-08    50.188       -0.07           0.25           0.00         918.94    826738.60         0.67
    178.00   216720.6    4635.55    1.12606E-02    6.15009E-08    50.189       -0.07           0.25           0.00         919.18    831358.83         0.66
    179.00   217071.6    4634.86    1.11002E-02    6.05486E-08    50.190       -0.07           0.25           0.00         919.43    835978.78         0.65
    180.00   217416.7    4634.17    1.09450E-02    5.96279E-08    50.192       -0.07           0.24           0.00         919.68    840598.45         0.64
    181.00   217755.8    4633.50    1.07947E-02    5.87377E-08    50.193       -0.07           0.24           0.00         919.92    845217.84         0.63
    182.00   218089.0    4632.84    1.06492E-02    5.78770E-08    50.194       -0.07           0.24           0.00         920.16    849836.97         0.62
    183.00   218416.3    4632.19    1.05083E-02    5.70450E-08    50.195       -0.07           0.24           0.00         920.40    854455.82         0.61
    184.00   218737.6    4631.56    1.03720E-02    5.62405E-08    50.197       -0.06           0.24           0.00         920.64    859074.41         0.60
    185.00   219053.0    4630.93    1.02401E-02    5.54628E-08    50.198       -0.06           0.24           0.00         920.88    863692.74         0.59
    186.00   219362.5    4630.32    1.01124E-02    5.47110E-08    50.199       -0.06           0.23           0.00         921.11    868310.80         0.59
    187.00   219666.0    4629.72    9.98889E-03    5.39842E-08    50.201       -0.06           0.23           0.00         921.34    872928.61         0.58
    188.00   219963.7    4629.13    9.86934E-03    5.32818E-08    50.202       -0.06           0.23           0.00         921.57    877546.16         0.57
    189.00   220255.3    4628.55    9.75369E-03    5.26029E-08    50.203       -0.06           0.23           0.00         921.80    882163.46         0.56